 
data_exp_248
 
_audit_creation_method            'SHELXL-2018/3'
_shelx_SHELXL_version_number      '2018/3'
_chemical_name_systematic         ?
_chemical_name_common             ?
_chemical_melting_point           ?
_chemical_formula_moiety          ?
_chemical_formula_sum
 'Pb2 Rh0.98' 
_chemical_formula_weight          514.72

loop_
 _atom_type_symbol
 _atom_type_description
 _atom_type_scat_dispersion_real
 _atom_type_scat_dispersion_imag
 _atom_type_scat_source
 'Pb'  'Pb'  -3.3944  10.1111
 'International Tables Vol C Tables 4.2.6.8 and 6.1.1.4'
 'Rh'  'Rh'  -1.1178   0.9187
 'International Tables Vol C Tables 4.2.6.8 and 6.1.1.4'
 
_space_group_crystal_system       tetragonal
_space_group_IT_number            140
_space_group_name_H-M_alt         'I 4/m c m'
_space_group_name_Hall            '-I 4 2c'
 
_shelx_space_group_comment
;
The symmetry employed for this shelxl refinement is uniquely defined
by the following loop, which should always be used as a source of
symmetry information in preference to the above space-group names.
They are only intended as comments.
;
 
loop_
 _space_group_symop_operation_xyz
 'x, y, z'
 '-x, -y, z'
 '-y, x, z'
 'y, -x, z'
 '-x, y, -z+1/2'
 'x, -y, -z+1/2'
 'y, x, -z+1/2'
 '-y, -x, -z+1/2'
 'x+1/2, y+1/2, z+1/2'
 '-x+1/2, -y+1/2, z+1/2'
 '-y+1/2, x+1/2, z+1/2'
 'y+1/2, -x+1/2, z+1/2'
 '-x+1/2, y+1/2, -z+1'
 'x+1/2, -y+1/2, -z+1'
 'y+1/2, x+1/2, -z+1'
 '-y+1/2, -x+1/2, -z+1'
 '-x, -y, -z'
 'x, y, -z'
 'y, -x, -z'
 '-y, x, -z'
 'x, -y, z-1/2'
 '-x, y, z-1/2'
 '-y, -x, z-1/2'
 'y, x, z-1/2'
 '-x+1/2, -y+1/2, -z+1/2'
 'x+1/2, y+1/2, -z+1/2'
 'y+1/2, -x+1/2, -z+1/2'
 '-y+1/2, x+1/2, -z+1/2'
 'x+1/2, -y+1/2, z'
 '-x+1/2, y+1/2, z'
 '-y+1/2, -x+1/2, z'
 'y+1/2, x+1/2, z'
 
_cell_length_a                    6.7035(4)
_cell_length_b                    6.7035(4)
_cell_length_c                    5.8618(7)
_cell_angle_alpha                 90
_cell_angle_beta                  90
_cell_angle_gamma                 90
_cell_volume                      263.42(5)
_cell_formula_units_Z             4
_cell_measurement_temperature     297(2)
_cell_measurement_reflns_used     ?
_cell_measurement_theta_min       ?
_cell_measurement_theta_max       ?
 
_exptl_crystal_description        ?
_exptl_crystal_colour             ?
_exptl_crystal_density_meas       ?
_exptl_crystal_density_method     ?
_exptl_crystal_density_diffrn     12.979         
_exptl_crystal_F_000              832
_exptl_transmission_factor_min    ?
_exptl_transmission_factor_max    ?
_exptl_crystal_size_max           0.111
_exptl_crystal_size_mid           0.045
_exptl_crystal_size_min           0.031
_exptl_absorpt_coefficient_mu     133.159
_shelx_estimated_absorpt_T_min    0.024
_shelx_estimated_absorpt_T_max    0.104
_exptl_absorpt_correction_type    ?
_exptl_absorpt_correction_T_min   ?
_exptl_absorpt_correction_T_max   ?
_exptl_absorpt_process_details    ?
_exptl_absorpt_special_details    ?
_diffrn_ambient_temperature       297(2)
_diffrn_radiation_wavelength      0.71073
_diffrn_radiation_type            MoK\a
_diffrn_source                    ?
_diffrn_measurement_device_type   ?
_diffrn_measurement_method        ?
_diffrn_detector_area_resol_mean  ?
_diffrn_reflns_number             467
_diffrn_reflns_av_unetI/netI      0.0368
_diffrn_reflns_av_R_equivalents   0.0362
_diffrn_reflns_limit_h_min        -9
_diffrn_reflns_limit_h_max        7
_diffrn_reflns_limit_k_min        -8
_diffrn_reflns_limit_k_max        9
_diffrn_reflns_limit_l_min        -7
_diffrn_reflns_limit_l_max        8
_diffrn_reflns_theta_min          4.299
_diffrn_reflns_theta_max          30.250
_diffrn_reflns_theta_full         25.242
_diffrn_measured_fraction_theta_max   0.919
_diffrn_measured_fraction_theta_full  0.947
_diffrn_reflns_Laue_measured_fraction_max    0.919
_diffrn_reflns_Laue_measured_fraction_full   0.947
_diffrn_reflns_point_group_measured_fraction_max   0.919
_diffrn_reflns_point_group_measured_fraction_full  0.947
_reflns_number_total              113
_reflns_number_gt                 84
_reflns_threshold_expression      'I > 2\s(I)'
_reflns_Friedel_coverage          0.000
_reflns_Friedel_fraction_max      .
_reflns_Friedel_fraction_full     .
 
_reflns_special_details
;
 Reflections were merged by SHELXL according to the crystal
 class for the calculation of statistics and refinement.
 
 _reflns_Friedel_fraction is defined as the number of unique
 Friedel pairs measured divided by the number that would be
 possible theoretically, ignoring centric projections and
 systematic absences.
;
 
_computing_data_collection        ?
_computing_cell_refinement        ?
_computing_data_reduction         ?
_computing_structure_solution     ?
_computing_structure_refinement 'SHELXL-2018/3 (Sheldrick, 2018)'
_computing_molecular_graphics     ?
_computing_publication_material   ?
_refine_special_details           ?
_refine_ls_structure_factor_coef  Fsqd
_refine_ls_matrix_type            full
_refine_ls_weighting_scheme       calc
_refine_ls_weighting_details
'w=1/[\s^2^(Fo^2^)] where P=(Fo^2^+2Fc^2^)/3'
_atom_sites_solution_primary      ?
_atom_sites_solution_secondary    ?
_atom_sites_solution_hydrogens    .
_refine_ls_hydrogen_treatment     undef
_refine_ls_extinction_method      'SHELXL-2018/3 (Sheldrick 2018)'
_refine_ls_extinction_coef        0.0034(3)
_refine_ls_extinction_expression
 'Fc^*^=kFc[1+0.001xFc^2^\l^3^/sin(2\q)]^-1/4^'
_refine_ls_number_reflns          113
_refine_ls_number_parameters      8
_refine_ls_number_restraints      0
_refine_ls_R_factor_all           0.0256
_refine_ls_R_factor_gt            0.0172
_refine_ls_wR_factor_ref          0.0341
_refine_ls_wR_factor_gt           0.0322
_refine_ls_goodness_of_fit_ref    0.967
_refine_ls_restrained_S_all       0.967
_refine_ls_shift/su_max           0.000
_refine_ls_shift/su_mean          0.000
 
loop_
 _atom_site_label
 _atom_site_type_symbol
 _atom_site_fract_x
 _atom_site_fract_y
 _atom_site_fract_z
 _atom_site_U_iso_or_equiv
 _atom_site_adp_type
 _atom_site_occupancy
 _atom_site_site_symmetry_order  
 _atom_site_calc_flag
 _atom_site_refinement_flags_posn
 _atom_site_refinement_flags_adp
 _atom_site_refinement_flags_occupancy
 _atom_site_disorder_assembly
 _atom_site_disorder_group
Rh Rh 0.500000 0.500000 0.750000 0.0137(4) Uani 1 8 d S T P . .
Pb Pb 0.66516(6) 0.16516(6) 0.500000 0.0110(3) Uani 1 4 d S T P . .
 
loop_
 _atom_site_aniso_label
 _atom_site_aniso_U_11
 _atom_site_aniso_U_22
 _atom_site_aniso_U_33
 _atom_site_aniso_U_23
 _atom_site_aniso_U_13
 _atom_site_aniso_U_12
Rh 0.0137(5) 0.0137(5) 0.0135(10) 0.000 0.000 0.000
Pb 0.0093(3) 0.0093(3) 0.0145(4) 0.000 0.000 0.0012(2)
 
_geom_special_details
;
 All esds (except the esd in the dihedral angle between two l.s. planes)
 are estimated using the full covariance matrix.  The cell esds are taken
 into account individually in the estimation of esds in distances, angles
 and torsion angles; correlations between esds in cell parameters are only
 used when they are defined by crystal symmetry.  An approximate (isotropic)
 treatment of cell esds is used for estimating esds involving l.s. planes.
;
 
loop_
 _geom_bond_atom_site_label_1
 _geom_bond_atom_site_label_2
 _geom_bond_distance
 _geom_bond_site_symmetry_2
 _geom_bond_publ_flag
Rh Pb 2.9003(2) 27_566 ?
Rh Pb 2.9003(2) 19_566 ?
Rh Pb 2.9003(2) 25_656 ?
Rh Pb 2.9003(2) 11_545 ?
Rh Pb 2.9003(2) 3_655 ?
Rh Pb 2.9003(2) 17_666 ?
Rh Pb 2.9003(2) 9_455 ?
Rh Pb 2.9003(2) . ?
Rh Rh 2.9309(4) 17_667 ?
Rh Rh 2.9309(4) 17_666 ?
Pb Pb 3.1315(11) 17_656 ?
Pb Pb 3.3433(6) 25_656 ?
Pb Pb 3.3433(6) 25_655 ?
Pb Pb 3.5395(3) 19_566 ?
Pb Pb 3.5395(3) 3_645 ?
Pb Pb 3.5395(3) 19_666 ?
Pb Pb 3.5395(3) 3_655 ?
Pb Pb 3.6733(6) 27 ?
 
loop_
 _geom_angle_atom_site_label_1
 _geom_angle_atom_site_label_2
 _geom_angle_atom_site_label_3
 _geom_angle
 _geom_angle_site_symmetry_1
 _geom_angle_site_symmetry_3
 _geom_angle_publ_flag
Pb Rh Pb 147.80(2) 27_566 19_566 ?
Pb Rh Pb 75.208(3) 27_566 25_656 ?
Pb Rh Pb 135.117(19) 19_566 25_656 ?
Pb Rh Pb 119.300(8) 27_566 11_545 ?
Pb Rh Pb 70.392(10) 19_566 11_545 ?
Pb Rh Pb 75.208(3) 25_656 11_545 ?
Pb Rh Pb 70.392(10) 27_566 3_655 ?
Pb Rh Pb 119.300(8) 19_566 3_655 ?
Pb Rh Pb 78.584(18) 25_656 3_655 ?
Pb Rh Pb 147.80(2) 11_545 3_655 ?
Pb Rh Pb 78.584(18) 27_566 17_666 ?
Pb Rh Pb 75.208(3) 19_566 17_666 ?
Pb Rh Pb 147.80(2) 25_656 17_666 ?
Pb Rh Pb 135.117(19) 11_545 17_666 ?
Pb Rh Pb 75.208(3) 3_655 17_666 ?
Pb Rh Pb 75.208(4) 27_566 9_455 ?
Pb Rh Pb 78.584(18) 19_566 9_455 ?
Pb Rh Pb 119.300(8) 25_656 9_455 ?
Pb Rh Pb 75.208(3) 11_545 9_455 ?
Pb Rh Pb 135.117(19) 3_655 9_455 ?
Pb Rh Pb 70.392(10) 17_666 9_455 ?
Pb Rh Pb 135.117(19) 27_566 . ?
Pb Rh Pb 75.208(4) 19_566 . ?
Pb Rh Pb 70.392(10) 25_656 . ?
Pb Rh Pb 78.584(18) 11_545 . ?
Pb Rh Pb 75.208(3) 3_655 . ?
Pb Rh Pb 119.300(7) 17_666 . ?
Pb Rh Pb 147.80(2) 9_455 . ?
Pb Rh Rh 59.650(4) 27_566 17_667 ?
Pb Rh Rh 120.350(4) 19_566 17_667 ?
Pb Rh Rh 59.650(4) 25_656 17_667 ?
Pb Rh Rh 59.650(4) 11_545 17_667 ?
Pb Rh Rh 120.350(4) 3_655 17_667 ?
Pb Rh Rh 120.350(4) 17_666 17_667 ?
Pb Rh Rh 59.650(4) 9_455 17_667 ?
Pb Rh Rh 120.350(4) . 17_667 ?
Pb Rh Rh 120.350(4) 27_566 17_666 ?
Pb Rh Rh 59.650(4) 19_566 17_666 ?
Pb Rh Rh 120.350(4) 25_656 17_666 ?
Pb Rh Rh 120.350(4) 11_545 17_666 ?
Pb Rh Rh 59.650(4) 3_655 17_666 ?
Pb Rh Rh 59.650(4) 17_666 17_666 ?
Pb Rh Rh 120.350(4) 9_455 17_666 ?
Pb Rh Rh 59.650(4) . 17_666 ?
Rh Rh Rh 180.0 17_667 17_666 ?
Rh Pb Rh 109.608(11) 25_656 . ?
Rh Pb Rh 60.700(8) 25_656 9_544 ?
Rh Pb Rh 147.80(2) . 9_544 ?
Rh Pb Rh 147.80(2) 25_656 17_666 ?
Rh Pb Rh 60.700(8) . 17_666 ?
Rh Pb Rh 109.608(10) 9_544 17_666 ?
Rh Pb Pb 106.100(11) 25_656 17_656 ?
Rh Pb Pb 106.100(11) . 17_656 ?
Rh Pb Pb 106.100(11) 9_544 17_656 ?
Rh Pb Pb 106.100(11) 17_666 17_656 ?
Rh Pb Pb 54.804(5) 25_656 25_656 ?
Rh Pb Pb 54.804(5) . 25_656 ?
Rh Pb Pb 108.030(16) 9_544 25_656 ?
Rh Pb Pb 108.030(16) 17_666 25_656 ?
Pb Pb Pb 118.760(17) 17_656 25_656 ?
Rh Pb Pb 108.030(16) 25_656 25_655 ?
Rh Pb Pb 108.030(16) . 25_655 ?
Rh Pb Pb 54.804(5) 9_544 25_655 ?
Rh Pb Pb 54.804(5) 17_666 25_655 ?
Pb Pb Pb 118.760(17) 17_656 25_655 ?
Pb Pb Pb 122.48(3) 25_656 25_655 ?
Rh Pb Pb 148.821(8) 25_656 19_566 ?
Rh Pb Pb 52.396(2) . 19_566 ?
Rh Pb Pb 148.821(8) 9_544 19_566 ?
Rh Pb Pb 52.396(2) 17_666 19_566 ?
Pb Pb Pb 63.745(12) 17_656 19_566 ?
Pb Pb Pb 102.289(2) 25_656 19_566 ?
Pb Pb Pb 102.289(2) 25_655 19_566 ?
Rh Pb Pb 52.396(2) 25_656 3_645 ?
Rh Pb Pb 148.821(8) . 3_645 ?
Rh Pb Pb 52.396(2) 9_544 3_645 ?
Rh Pb Pb 148.821(8) 17_666 3_645 ?
Pb Pb Pb 63.745(12) 17_656 3_645 ?
Pb Pb Pb 102.289(2) 25_656 3_645 ?
Pb Pb Pb 102.289(2) 25_655 3_645 ?
Pb Pb Pb 127.49(2) 19_566 3_645 ?
Rh Pb Pb 52.396(2) 25_656 19_666 ?
Rh Pb Pb 96.48(2) . 19_666 ?
Rh Pb Pb 52.396(2) 9_544 19_666 ?
Rh Pb Pb 96.48(2) 17_666 19_666 ?
Pb Pb Pb 153.745(12) 17_656 19_666 ?
Pb Pb Pb 64.437(18) 25_656 19_666 ?
Pb Pb Pb 64.437(18) 25_655 19_666 ?
Pb Pb Pb 142.51(2) 19_566 19_666 ?
Pb Pb Pb 90.0 3_645 19_666 ?
Rh Pb Pb 96.48(2) 25_656 3_655 ?
Rh Pb Pb 52.396(2) . 3_655 ?
Rh Pb Pb 96.48(2) 9_544 3_655 ?
Rh Pb Pb 52.396(2) 17_666 3_655 ?
Pb Pb Pb 153.745(12) 17_656 3_655 ?
Pb Pb Pb 64.437(18) 25_656 3_655 ?
Pb Pb Pb 64.437(18) 25_655 3_655 ?
Pb Pb Pb 90.0 19_566 3_655 ?
Pb Pb Pb 142.51(2) 3_645 3_655 ?
Pb Pb Pb 52.51(2) 19_666 3_655 ?
Rh Pb Pb 99.964(11) 25_656 27 ?
Rh Pb Pb 150.422(2) . 27 ?
Rh Pb Pb 50.708(9) 9_544 27 ?
Rh Pb Pb 93.634(8) 17_666 27 ?
Pb Pb Pb 64.770(6) 17_656 27 ?
Pb Pb Pb 154.762(6) 25_656 27 ?
Pb Pb Pb 60.371(9) 25_655 27 ?
Pb Pb Pb 101.170(5) 19_566 27 ?
Pb Pb Pb 55.191(12) 3_645 27 ?
Pb Pb Pb 101.170(5) 19_666 27 ?
Pb Pb Pb 124.808(12) 3_655 27 ?
 
_refine_diff_density_max    1.708
_refine_diff_density_min   -1.828
_refine_diff_density_rms    0.386

_shelx_res_file
;
TITL exp_248_a.res in I4/mcm
    exp_248.res
    created by SHELXL-2018/3 at 22:12:07 on 18-Aug-2021
CELL 0.71073 6.703548 6.703548 5.861805 90 90 90
ZERR 4 0.00044 0.00044 0.000712 0 0 0
LATT 2
SYMM -X,-Y,+Z
SYMM -Y,+X,+Z
SYMM +Y,-X,+Z
SYMM -X,+Y,0.5-Z
SYMM +X,-Y,0.5-Z
SYMM +Y,+X,0.5-Z
SYMM -Y,-X,0.5-Z
SFAC Pb Rh
UNIT 8 3.9

L.S. 100
PLAN  5
SIZE 0.031 0.045 0.111
TEMP 24
list 4
fmap 2 53
acta
OMIT 1 8 3
OMIT 4 4 4
OMIT 0 8 2
OMIT 1 5 6
OMIT 0 0 8
OMIT 1 3 0
OMIT 1 3 2
OMIT 0 0 4
REM <olex2.extras>
REM <HklSrc "%.\\exp_248.hkl">
REM </olex2.extras>

WGHT    0.000000
EXTI    0.003446
FVAR       0.15937
RH    2    0.500000    0.500000    0.750000    10.12500    0.01375    0.01375 =
         0.01351    0.00000    0.00000    0.00000
PB    1    0.665160    0.165160    0.500000    10.25000    0.00927    0.00927 =
         0.01451    0.00000    0.00000    0.00117
HKLF 4




REM  exp_248_a.res in I4/mcm
REM wR2 = 0.0341, GooF = S = 0.967, Restrained GooF = 0.967 for all data
REM R1 = 0.0172 for 84 Fo > 4sig(Fo) and 0.0256 for all 113 data
REM 8 parameters refined using 0 restraints

END

WGHT      0.0000      0.0000

REM Highest difference peak  1.708,  deepest hole -1.828,  1-sigma level  0.386
Q1    1   0.5000  0.0000  0.3364  10.25000  0.05    1.71
Q2    1   0.5777  0.0777  0.5000  10.25000  0.05    1.51
Q3    1   0.7622  0.0641  0.5000  10.50000  0.05    1.46
Q4    1   0.6676  0.1676  0.6750  10.50000  0.05    1.33
Q5    1   0.6617 -0.0532  0.6984  11.00000  0.05    1.27
;
_shelx_res_checksum   89831

_shelx_hkl_file
;
   0   0  -2 2931.22 136.999   4
   0   0  -2 2866.77 133.500   2
   0   0  -4 5156.12 242.091   4
   0   0  -4 5163.05 236.125   2
   0   0   4 5048.18 239.513   1
   0   0   6 1172.23 68.1166   1
   0   0   8 1505.04 84.1517   1
   0   1  -1 7.31394 6.28694   1
   0   1   1 7.48116 2.89884   4
  -1   0  -1 2.11427 2.62440   4
   1   0   1 10.4375 3.15182   4
   0  -1  -1 6.06146 2.64958   4
   0  -1   3 1.17590 12.4805   2
  -1   0  -3 1.96157 7.47143   2
   1   0   3 5.79730 13.5170   1
  -1   0  -3 0.87936 5.62816   4
   0  -1  -3 3.44726 6.94061   4
   0  -1   3-7.49193 12.1725   1
   0  -1  -5 3.10552 10.6060   4
   1   0   5 1.61475 11.1630   1
   0  -1   5-1.42081 10.7171   1
   0   1   5 5.56873 9.62453   1
  -1   0  -5 9.24461 11.3870   4
  -1   0   5-2.63656 9.53776   1
   1   0   7-3.22719 12.2931   1
   0   1   7 19.5170 12.5088   1
  -1   0   7 1.44331 10.5561   1
  -1   1   0 10.3628 2.47458   6
   1   1   0 7.44231 2.07545   5
  -1   1  -2 1392.78 71.3137   1
  -1  -1  -2 1536.73 69.4571   4
  -1   1  -2 1555.63 80.5342   2
  -1   1   2 1379.20 71.9999   4
   1  -1  -2 1452.90 75.7546   4
   1  -1  -2 1467.06 65.4909   3
   1  -1   2 1522.39 75.1768   4
   1   1   2 1406.82 85.8541   1
   1  -1   2 1756.62 83.5483   2
  -1   1  -2 1447.12 76.0867   4
  -1  -1   4 5.94500 8.51175   1
   1   1   4 1.57685 9.95413   1
  -1   1  -4-1.57139 9.77707   4
  -1  -1  -4 7.37792 7.16626   2
  -1  -1  -4 10.2990 7.77229   4
   1  -1   4 4.14890 13.9972   1
   1  -1  -4 12.8050 11.9543   4
  -1  -1   6 507.797 36.3127   1
  -1  -1  -6 407.217 36.9675   4
  -1   1   6 424.232 35.2435   1
   1  -1   6 567.248 41.9768   1
   1   1   6 479.672 37.3706   1
   1   1   8 1.59313 12.7197   1
  -1   1   8 10.7633 13.1238   1
   0   2   0 403.244 18.8559   5
   0  -2   0 393.361 18.4505   6
   0   2   0 406.922 21.0247   3
  -2   0   0 372.718 18.5161   5
   2   0   0 354.181 18.4584   5
   0  -2   0 398.596 20.7047   3
   0   2   2 2624.37 122.407   4
   0  -2  -2 2770.80 123.761   4
   0  -2  -2 2682.91 122.763   3
  -2   0  -2 2795.30 124.298   4
   0   2  -2 2796.38 127.699   1
   2   0   2 2770.86 123.321   4
   2   0   4 174.841 30.0521   1
  -2   0  -4 225.177 22.1913   2
   0  -2  -4 204.004 19.8188   4
   0  -2   4 207.701 22.9705   1
  -2   0  -4 221.668 20.1693   4
   0   2   6 827.682 54.3456   1
   0  -2  -6 864.879 57.3246   4
  -2   0  -6 889.114 57.0498   4
   0   2   8 53.7949 16.6998   1
   1  -2   1 3005.01 141.324   4
  -2  -1  -1 3159.82 141.384   1
  -2   1  -1 3171.42 136.934   4
   2   1   1 3133.93 136.264   4
  -2   1  -1 2935.96 150.364   2
  -1  -2   1 3065.77 137.239   3
  -2  -1  -1 3228.89 136.747   4
  -1  -2  -1 3005.40 135.868   5
   1   2  -1 3019.77 138.143   3
  -2  -1   1 3094.92 135.537   3
  -1  -2  -1 2993.05 137.478   3
   2  -1  -1 3196.65 136.936   6
   2  -1   1 3117.86 135.516   4
  -1  -2  -1 3153.83 136.672   4
   2  -1   1 3048.88 149.670   2
  -1   2   1 2911.12 136.059   3
  -1   2   1 2965.31 134.405   4
   2   1  -1 3091.35 135.052   6
   1  -2  -1 2965.53 135.335   4
   1   2   3 2525.56 124.798   1
   1  -2  -3 2351.10 115.635   4
  -1  -2   3 2476.61 116.078   1
   2   1   3 2359.07 130.963   1
  -2   1   3 2591.92 118.507   4
  -1   2   3 2266.84 110.309   4
  -2   1  -3 2184.43 114.888   4
  -2   1  -3 2503.59 123.723   2
   1   2  -3 2457.32 116.034   3
  -2  -1  -3 2352.28 110.923   4
  -1  -2  -3 2270.69 110.558   4
  -2  -1  -5 1325.37 73.3029   4
  -2  -1  -5 1281.94 72.6258   2
  -2   1  -5 1377.79 77.7059   4
   1  -2  -5 1453.61 79.5273   4
  -1  -2  -5 1252.87 72.6549   4
   1   2   5 1284.30 75.7355   1
   2   1   5 1357.77 81.2590   1
  -1   2   7 662.983 47.6223   1
  -2   1   7 595.029 45.9925   1
  -2  -1  -7 671.715 49.8232   4
  -1  -2  -7 661.620 50.0071   4
   1   2   7 712.671 48.2825   1
  -2  -2   0 1337.57 68.7040   1
  -2   2   0 1414.04 65.1141   6
  -2  -2   0 1476.82 65.1761   3
   2   2   0 1356.10 64.3366   5
   2  -2   0 1244.10 74.8876   2
  -2   2   2 4.83963 2.05006   3
   2   2   2 1.81808 13.8528   1
  -2  -2  -2 12.3415 3.65428   4
  -2   2  -2 7.01174 9.66050   4
  -2   2   2 11.9754 5.11849   4
   2   2  -2 4.98975 4.11676   3
   2  -2   2 10.6709 7.81852   4
   2   2   4 645.040 50.1476   1
  -2  -2  -4 692.043 40.0808   4
   2   2   6-8.75825 13.2144   1
  -2  -2  -6-3.00083 11.2060   4
   0   3  -1 0.39002 2.22283   6
  -3   0  -1 2.04313 2.43332   4
   0  -3  -1 2.58780 2.27804   4
   0   3   1 6.34134 4.03442   3
   0  -3  -1 1.56104 4.42609   3
   0   3  -1 5.20111 5.87852   3
  -3   0   1 4.68776 2.76810   6
   0  -3  -1-0.20342 2.33874   5
  -3   0  -3 0.68997 5.30730   4
   0  -3  -3-0.64922 4.74767   4
  -3   0  -3 4.24435 8.40254   2
  -3   0  -5 7.93187 9.56427   4
  -3   0  -5 6.47620 10.3624   2
   0  -3  -5-6.62998 9.90120   4
   0   3   7-4.96159 13.2021   1
   0  -3  -7 1.89461 15.9133   4
  -3   0  -7 14.5784 12.8943   4
   1   3   0 2596.35 120.794   5
  -1   3   0 2680.23 124.697   3
  -3   1   0 2348.74 135.677   2
  -1  -3   0 2722.48 122.237   3
  -1   3   0 2729.45 118.688   5
  -3   1   0 2711.10 118.650   4
  -1   3   0 2646.05 121.194   6
  -3   1   0 2772.64 121.851   6
   3   1   0 2715.83 120.929   5
   1   3   0 2641.10 123.117   3
   3  -1   2 370.952 21.0889   4
  -1   3   2 382.330 20.7871   3
  -3   1  -2 377.188 22.9076   4
  -3   1   2 375.092 26.4229   4
  -3   1  -2 367.410 34.0786   2
   1  -3  -2 373.540 21.7935   4
   1   3  -2 407.787 26.5697   3
  -3  -1  -2 378.337 21.9472   4
  -1  -3  -2 354.678 21.3029   4
  -1   3   2 384.093 19.7901   4
   1  -3   2 357.212 27.9107   4
  -3   1  -4 1569.47 83.9251   4
  -3   1  -4 1643.75 91.3074   2
   1  -3  -4 1629.96 84.7080   4
  -3  -1  -4 1515.43 79.6422   4
  -1  -3  -4 1572.21 79.9032   4
   1   3  -4 1649.01 87.3107   3
   1   3   4 1544.88 88.8165   1
   1   3   6 98.5539 18.5122   1
  -3   1  -6 110.860 20.7375   4
  -3  -1  -6 106.712 18.0126   4
  -1  -3  -6 101.554 18.7541   4
  -3  -2   1 5.80180 3.57222   3
  -3  -2  -1 1.36551 6.98822   1
   3   2  -1 3.98779 3.36855   5
  -3   2   1 2.05121 3.71508   6
  -3  -2  -1 1.74272 3.15804   4
  -2   3   1 9.77998 4.69060   3
  -3  -2   1 4.92222 2.16630   6
   2   3  -1 5.73284 4.49796   3
  -2  -3  -1 6.50869 3.31118   4
   2   3   1 1.81877 8.51424   1
  -3   2  -1 2.84800 6.19928   4
  -2  -3  -3 6.54493 5.04051   4
  -3   2  -3 2.55561 9.83205   4
   2   3  -3 0.91724 6.85342   3
  -3  -2  -3 6.04416 4.59369   4
  -3   2  -5-3.55915 12.7339   4
  -3  -2  -5-1.15094 8.50575   4
  -2  -3  -5 8.00890 8.80066   4
   2   3   5 1.87541 13.2697   1
   3   2   5-9.56145 17.2934   1
   2   3   7 8.71975 13.6701   1
  -2  -3  -7-3.49402 14.7913   4
  -3  -2  -7-5.23866 13.9390   4
   3   3   0 2404.07 108.329   5
  -3   3   0 2262.78 108.842   6
   3   3  -2 4585.94 207.099   3
  -3  -3  -2 4534.68 205.572   4
  -3  -3  -4 1468.64 73.0728   4
   3   3   4 1249.70 88.8461   1
  -3  -3  -6 1942.02 103.809   4
   3   3   6 2054.34 113.202   1
   0   4   0 468.979 27.5802   3
   0   4   0 423.332 22.6526   5
  -4   0   0 414.626 22.2182   4
   0   4  -2 2084.27 108.655   3
  -4   0  -2 2201.83 99.5662   4
   0  -4  -2 2104.87 98.4391   4
  -4   0  -4 227.500 20.3656   4
   0  -4  -4 273.870 21.6717   4
  -4   0  -4 242.748 27.6634   2
   0   4   6 773.608 53.2890   1
  -4   0  -6 694.841 52.7765   2
  -4   0  -6 766.946 50.5239   4
   4   1  -1 2172.11 101.605   5
  -4   1   1 2440.65 122.614   2
   1   4  -1 2244.14 102.603   5
  -1   4   1 2250.78 103.467   3
   1   4  -1 2236.40 106.463   3
  -4   1  -1 2316.38 120.573   2
  -4   1  -1 2229.14 100.018   4
  -1   4  -1 2320.51 110.327   3
  -4   1   1 2251.24 102.624   6
  -4  -1  -1 2163.22 101.146   4
  -1  -4  -1 2220.96 101.256   4
  -4  -1   1 2135.60 100.050   6
  -1   4  -1 2078.75 100.891   6
  -4   1  -3 1639.56 80.4789   4
  -4   1  -3 1684.62 94.8120   2
   1   4  -3 1551.03 86.2822   3
  -4  -1  -3 1582.60 78.6998   4
  -1  -4  -3 1598.84 78.0674   4
  -4   1  -5 1065.63 67.8251   2
  -4   1  -5 903.268 58.6161   4
  -4  -1  -5 991.024 57.2352   4
  -1  -4  -5 964.268 56.1972   4
  -4  -1  -5 962.023 62.5398   2
   1   4   5 1008.30 64.0365   1
  -4   1  -7 554.081 43.2468   4
  -4  -1  -7 483.967 40.7771   4
   1   4   7 527.610 41.5978   1
  -1   4   7 416.822 40.5452   1
   4   2   0 968.865 49.2862   5
   2   4   0 984.679 49.3945   5
   2   4   0 973.506 51.8431   3
  -4   2   0 1022.35 50.7037   6
  -2   4   0 987.579 53.9714   3
  -2   4   0 982.316 49.9261   6
  -2  -4  -2 8.10846 4.55887   4
   2   4   2 6.80430 17.4512   1
  -4   2  -2 5.53062 16.9500   2
   2   4  -2 2.81400 6.72477   3
  -4  -2  -2 16.5122 5.27939   4
   2   4   4 522.534 46.0286   1
  -4  -2  -4 545.112 34.6692   4
  -2  -4  -4 548.948 34.3538   4
   2   4   6-1.89935 14.1837   1
  -4  -2  -6 2.87023 10.7178   4
  -2  -4  -6 12.7107 11.4750   4
  -4  -2  -6 5.11943 11.7986   2
  -4   3  -1 2.93276 4.94696   6
  -4  -3  -1 3.74190 4.26033   4
  -3  -4  -1-0.63022 4.35736   4
  -3   4  -1-1.46795 5.48101   6
   4   3  -1-0.68373 4.43700   5
   3   4  -1 1.40185 4.84608   5
  -4   3   1 4.30807 4.78364   6
  -3   4   1 7.59173 5.50964   3
  -3  -4  -3 2.29473 5.77065   4
  -4  -3  -3 3.12927 5.53665   4
   3   4   5-2.38825 18.1947   1
  -4  -3  -5 2.36544 8.74421   4
  -3  -4  -5 14.0025 9.80398   4
  -3  -4  -7 3.33786 13.3221   4
   3   4   7-2.04261 15.4068   1
   4   4   0 847.790 46.0820   5
  -4   4   0 851.470 47.2641   6
   4   4  -2 20.4907 7.81973   5
  -4  -4  -2 23.9585 7.34495   4
  -4  -4  -4 457.397 31.5629   4
  -4  -4  -6 8.56344 11.2967   4
   0   5  -1 1.02625 3.98488   5
   0   5   1 0.79097 5.65993   3
   0   5  -1 5.68231 7.37392   3
  -5   0  -1 1.34117 3.33828   4
  -5   0   1-1.09259 3.86554   6
  -5   0  -3 9.47847 12.6287   2
  -5   0  -3-0.76842 5.68024   4
   0   5  -3 17.6012 13.2766   3
  -5   0  -5-2.09730 13.9726   2
  -5   0  -5 7.54131 9.76265   4
   0   5  -5 5.94956 14.6577   3
  -5   0  -7-1.74350 13.7932   4
   0   5   7 9.73341 15.6779   1
  -5  -1   0 0.46772 3.46571   4
   1   5   0 5.25216 4.16248   5
  -5   1   0 21.3358 5.85733   6
  -5   1   0 6.55693 14.5618   2
   1   5   0 2.69601 6.43542   3
  -1   5   0 12.4302 7.56820   3
  -1   5   2 721.802 37.0068   3
  -5   1  -2 599.354 49.3926   2
   1   5  -2 729.188 44.1978   3
  -1   5  -2 585.025 44.6713   3
  -5  -1  -2 626.966 34.8778   4
  -1  -5  -2 597.724 34.1183   4
   5   1  -2 595.201 34.8630   5
  -5   1  -4 2.27189 14.5414   2
  -1  -5  -4 10.7875 7.30488   4
  -5  -1  -4-1.94251 6.63608   4
  -5  -1  -4 1.88690 12.0777   2
   1   5  -4 10.7849 13.4226   3
   1   5   6 242.872 29.5706   1
  -5  -1  -6 202.380 28.4734   2
  -5  -1  -6 199.395 23.7486   4
  -5   2   1 1964.82 93.0516   6
  -5   2  -1 1851.69 120.190   2
   5   2  -1 1909.40 91.6745   5
   2   5  -1 1874.53 92.2992   5
   2   5  -1 1859.82 96.1856   3
  -2   5   1 2028.13 94.1166   3
  -2   5  -1 1732.84 99.5575   3
  -5  -2  -1 1940.34 91.5357   4
  -2  -5  -1 1962.90 91.4964   4
   2   5  -3 1428.77 82.2021   3
  -5  -2  -3 1462.06 74.9601   4
  -2  -5  -3 1484.77 74.3954   4
  -5  -2  -5 889.789 53.2431   4
  -2  -5  -5 927.355 53.5171   4
   3   5   0 1404.39 68.2003   5
  -3   5   0 1259.67 72.2208   3
  -5   3   0 1342.06 69.0663   6
   5   3  -2 155.663 15.9497   5
   3   5  -2 161.201 16.5359   5
  -5  -3  -2 169.113 15.1541   4
  -3  -5  -2 155.717 14.6921   4
   3   5  -2 165.791 18.7924   3
  -5  -3  -4 842.182 49.2700   4
  -3  -5  -4 844.585 48.6173   4
  -5  -3  -6 56.2206 15.3281   4
  -3  -5  -6 68.4705 15.4602   4
  -5  -3  -6 73.3619 18.6052   2
   5   4  -1 1393.63 72.7035   5
   4   5  -1 1394.30 72.8738   5
  -5  -4  -1 1445.99 72.4810   4
  -4  -5  -1 1462.94 72.6385   4
  -4   5  -1 1430.94 75.0258   6
  -5   4  -1 1378.26 74.3203   6
   5   4  -3 1071.96 60.3485   5
   4   5  -3 1090.13 61.2646   5
  -5  -4  -3 1027.53 57.2875   4
  -4  -5  -3 1037.83 57.2878   4
  -5  -4  -5 699.339 46.6032   4
  -4  -5  -5 791.061 47.9211   4
  -5  -5   0 2.91694 7.90239   4
  -5   5   0 7.78913 7.32073   6
   5   5  -2 402.917 29.4252   5
  -5  -5  -2 380.885 28.2084   4
  -5   5  -2 418.252 31.8691   6
   5   5  -4-3.17672 11.3663   5
  -5  -5  -4 8.11002 8.73961   4
   0   6   0 3985.10 181.266   3
  -6   0   0 3736.30 174.943   6
   0   6  -2 1443.05 80.7487   3
  -6   0  -2 1317.64 81.8863   2
  -6   0  -4 2330.18 129.027   2
   0   6  -4 2314.81 127.074   3
  -6   0  -6 580.903 49.9143   2
   0   6   6 630.039 51.7608   1
   1   6  -1 11.8435 6.00307   5
   1   6   1 13.6161 7.82964   3
  -6   1  -1 6.76122 15.5845   2
  -1   6   1 1.92967 6.75918   3
   1   6  -1 7.81230 8.56985   3
  -1   6  -1 15.4758 10.9318   3
  -6   1   1 9.08397 5.94557   6
  -6  -1  -1 7.12285 4.58110   4
  -6   1  -3 21.4364 17.2334   2
   1   6  -3 13.0222 13.1652   3
  -6  -1  -3 4.15427 6.08099   4
  -1   6  -3-2.09492 14.8250   3
  -6   1  -5-4.93313 16.6403   2
  -6  -1  -5-2.21901 16.9037   2
  -6  -1  -5-2.47455 10.0512   4
  -1   6  -5 20.6921 17.8541   3
   2   6   0 172.048 19.4386   3
   2   6   0 208.768 16.8261   5
  -6  -2   0 188.522 15.5367   4
  -2   6   0 187.730 19.7377   3
  -6   2   0 234.123 18.6962   6
   6   2  -2 1070.51 58.2375   5
  -6   2  -2 1181.06 82.5160   2
   2   6  -2 1161.99 60.9242   5
   2   6  -2 1138.28 66.7263   3
  -2   6  -2 973.135 68.5017   3
  -6  -2  -2 1164.64 58.2708   4
  -2  -6  -2 1111.76 58.0139   4
  -2   6  -4 153.732 28.6635   3
  -6  -2  -4 118.405 15.6844   4
  -6  -2  -6 468.045 38.1661   4
  -6  -2  -6 427.058 43.4063   2
  -3   6  -1 3.43259 11.2856   3
  -6  -3  -1-0.82801 6.18281   4
  -3  -6  -1 3.30875 6.11329   4
   6   3  -1-1.76783 5.96338   5
   3   6  -1 1.81312 6.41463   5
  -6   3   1-0.96025 6.63831   6
  -6   3  -1 8.25336 8.38107   6
   6   3  -3 11.1264 9.27107   5
   3   6  -3-1.27025 8.88668   5
   3   6  -3 12.3804 12.3723   3
  -6  -3  -3 1.87402 6.99857   4
  -3  -6  -3 3.62984 6.84675   4
  -6  -3  -5-5.12965 10.2396   4
  -3  -6  -5-6.09795 10.1635   4
  -6  -4   0 228.802 19.3030   4
  -4  -6   0 206.709 19.1143   4
  -6   4   0 200.771 20.0992   6
   6   4  -2 986.433 57.2934   5
   4   6  -2 1032.00 58.0163   5
  -6  -4  -2 1057.35 56.5734   4
  -4  -6  -2 1042.95 56.4391   4
  -6   4  -2 950.255 58.0326   6
  -6  -4  -4 136.539 16.8260   4
   6   4  -4 123.872 19.2258   5
   4   6  -4 126.998 20.4275   5
  -4  -6  -4 132.331 16.9344   4
  -6  -5  -1 15.5372 8.54543   4
  -5  -6  -1 15.4854 9.44693   4
   6   5  -1 14.9822 9.84240   5
   5   6  -1 3.49401 8.52596   5
  -5   6  -1 1.37693 10.0768   6
  -6   5  -1 4.07353 9.93734   6
   6   5  -3 8.23307 10.9571   5
   5   6  -3 8.46324 10.4283   5
  -6  -5  -3 12.4046 9.47612   4
  -5  -6  -3-1.12579 8.14996   4
  -6   5  -3 12.4919 11.2794   6
  -6  -6   0 2218.52 111.795   4
   6   6  -2 843.765 53.4040   5
  -6  -6  -2 893.756 52.4197   4
  -6   6  -2 862.218 57.1151   6
   0   7   1-1.21922 8.32812   3
   0   7  -1 4.73451 10.5134   3
  -7   0  -1 7.76456 13.2587   2
  -7   0  -3-2.33529 14.7372   2
   0   7  -3 2.14359 14.4614   3
  -7   0  -5 15.1525 17.6720   2
   0   7  -5 9.07675 15.8806   3
   1   7   0 26.4452 10.5443   3
  -1   7   0 18.8159 10.4832   3
  -7   1   0 22.8106 8.02713   6
   1   7  -2 426.196 37.1752   3
  -1   7  -2 463.140 38.5334   3
  -7   1  -4 20.8095 19.2310   2
   1   7  -4 6.78837 16.9045   3
  -7  -1  -4 21.9751 16.8878   2
  -1   7  -4 4.81330 16.4466   3
   2   7  -1 1050.55 56.8284   5
   2   7  -1 1141.46 65.4975   3
  -2   7  -1 968.661 63.7999   3
  -7  -2  -1 1089.43 55.2083   4
  -7   2   1 1016.81 57.1297   6
  -7   2  -1 990.337 57.5420   6
   2   7  -3 832.337 50.8667   5
   2   7  -3 790.545 57.7268   3
  -2   7  -3 751.880 60.0705   3
  -7  -2  -3 822.170 46.8295   4
  -7  -2  -5 490.436 36.9551   4
  -7  -2  -5 484.892 46.7120   2
  -3   7   0 1088.13 62.6569   3
  -7  -3   0 1062.61 56.3637   4
  -3  -7   0 969.957 55.2334   4
  -7   3   0 1057.38 58.9467   6
  -7   3  -2 173.848 20.1212   6
   7   3  -2 205.401 19.6622   5
   3   7  -2 228.883 21.4806   5
  -7  -3  -2 223.820 18.9013   4
  -3  -7  -2 200.245 18.7033   4
   3   7  -2 188.199 25.4869   3
  -3   7  -2 172.440 28.5449   3
   3   7  -4 608.026 46.7722   5
  -7  -3  -4 712.519 43.8268   4
  -3   7  -4 739.260 61.3241   3
   4   7  -1 826.257 49.4161   5
  -4   7  -1 759.586 57.2079   3
  -7  -4  -1 834.602 47.9672   4
  -4  -7  -1 823.301 48.4148   4
  -7   4  -1 810.860 50.9379   6
   7   4  -3 599.471 41.1226   5
   4   7  -3 567.081 41.9520   5
  -7  -4  -3 670.686 40.3344   4
  -4  -7  -3 635.803 39.4996   4
  -4   7  -3 594.250 57.1109   3
  -7   4  -3 508.628 39.4343   6
  -7  -5   0 19.5152 10.5710   4
  -5  -7   0-5.60976 9.19403   4
  -7   5   0 5.51228 9.86222   6
  -5   7  -2 268.874 39.9564   3
   7   5  -2 258.465 25.0476   5
   5   7  -2 230.780 23.9844   5
  -7  -5  -2 244.913 23.1746   4
  -5  -7  -2 241.256 23.1801   4
  -7   5  -2 211.608 24.6849   6
  -6  -7  -1 7.64153 10.0759   4
  -7  -6   1 7.17630 12.3438   4
  -6  -7   1-1.31095 10.3714   4
  -7   6  -1-1.63042 12.6618   6
  -7  -6  -1 2.62366 10.5653   4
   0   8   0 97.9545 18.3336   3
   0   8  -2 527.803 43.9705   3
  -8   0  -2 411.915 42.5347   2
  -8   0  -4 45.1816 21.3093   2
   0   8  -4 47.1844 21.4506   3
  -1   8   1 1060.06 59.7414   3
   1   8  -1 963.850 62.8398   3
  -1   8  -1 957.495 62.5264   3
  -8   1   1 936.580 53.8331   6
  -8   1  -1 933.685 54.4652   6
  -8   1  -3 589.050 54.1877   2
   1   8  -3 664.681 52.8183   3
  -1   8  -3 596.473 52.0854   3
  -8  -1  -3 659.099 55.8493   2
  -2   8   0 267.827 28.1118   3
  -8   2   0 313.844 25.4313   6
  -8   2  -2-1.16511 9.13282   6
   2   8  -2-4.28759 14.4628   3
  -2   8  -2 4.37648 14.9461   3
  -3   8  -1 27.2141 15.8051   3
  -8   3  -1 10.3431 10.1559   6
  -8   3  -3-2.65114 9.69378   6
   3   8  -3 21.7931 20.1734   3
  -3   8  -3-2.68628 19.0071   3
  -4  -8   0 161.006 18.2998   4
  -8  -4   0 224.939 21.6023   4
  -8   4   0 228.516 23.2004   6
   4   8  -2-4.11772 10.6598   5
  -4   8  -2-2.59626 19.3864   3
  -8  -4  -2-2.20749 8.49120   4
  -8   4  -2-4.32657 10.2054   6
  -5  -8  -1 619.435 42.7193   4
  -8  -5   1 779.654 47.5168   4
   0   9  -1-2.01770 13.9485   3
   1   9   0 641.347 48.1330   3
  -1   9   0 612.579 46.1237   3
   1   9  -2 86.1614 22.5473   3
  -1   9  -2 99.8088 23.0214   3
  -9   1  -2 85.4834 14.3740   6
  -2   9  -1 14.0063 15.3943   3
  -9   2  -1 4.96023 9.45187   6
   0   0   0    0.00    0.00   0

TITL exp_248 in I4/mcm
REM I4/mcm (#140 in standard setting)
CELL 0.71073   6.703548   6.703548   5.861805  90.0000  90.0000  90.0000
ZERR    2.00   0.000440   0.000440   0.000712   0.0000   0.0000   0.0000
LATT  2
SYMM -x,-y, z
SYMM -y, x, z
SYMM  y,-x, z
SYMM -x, y,-z+1/2
SYMM  x,-y,-z+1/2
SYMM  y, x,-z+1/2
SYMM -y,-x,-z+1/2
SFAC Rh Pb
UNIT 2.00 4.00
TREF
HKLF 4
END
;
_shelx_hkl_checksum   34409

